# vtk DataFile Version 3.0
vtk output
ASCII
DATASET STRUCTURED_POINTS
DIMENSIONS 125 120 1
SPACING 0.250000 0.250000 0.250000 
ORIGIN 0 0 0
POINT_DATA 15000
SCALARS HumanAtrium float 2
LOOKUP_TABLE default
-0.332355 0.943154 -0.332355 0.943154 -0.332355 0.943154 -0.332355 0.943154 -0.332355 0.943154 -0.332355 0.943154 -0.332355 0.943154 -0.332355 0.943154 -0.332355 0.943154 -0.332355 0.943154 -0.332355 0.943154 -0.332355 0.943154 -0.332355 0.943154 -0.332355 0.943154 -0.332355 0.943154 -0.332355 0.943154 -0.332355 0.943154 -0.332355 0.943154 -0.332355 0.943154 -0.332355 0.943154 -0.332355 0.943154 -0.332355 0.943154 -0.332355 0.943154 -0.332355 0.943154 -0.332355 0.943154 -0.332355 0.943154 -0.332355 0.943154 -0.332355 0.943154 -0.332355 0.943154 -0.332355 0.943154 -0.332355 0.943154 -0.332355 0.943154 -0.332355 0.943154 -0.332355 0.943154 -0.332355 0.943154 -0.332355 0.943154 -0.332355 0.943154 -0.332355 0.943154 -0.332355 0.943154 -0.332355 0.943154 -0.332355 0.943154 -0.332355 0.943154 -0.332355 0.943154 -0.332355 0.943154 -0.332355 0.943154 -0.332355 0.943154 -0.332355 0.943154 -0.332355 0.943154 -0.332355 0.943154 -0.332355 0.943154 -0.332355 0.943154 -0.332355 0.943154 -0.332355 0.943154 -0.332355 0.943154 -0.332355 0.943154 -0.332355 0.943154 -0.332355 0.943154 -0.332355 0.943154 -0.332355 0.943154 -0.332355 0.943154 -0.332355 0.943154 -0.332355 0.943154 -0.332355 0.943154 -0.332355 0.943154 -0.332355 0.943154 -0.332355 0.943154 -0.332355 0.943154 -0.332355 0.943154 -0.332355 0.943154 -0.332355 0.943154 -0.332355 0.943154 -0.332355 0.943154 -0.332355 0.943154 -0.332355 0.943154 -0.332355 0.943154 -0.332355 0.943154 -0.332355 0.943154 -0.332355 0.943154 -0.332355 0.943154 -0.332355 0.943154 -0.332355 0.943154 -0.332355 0.943154 -0.332355 0.943154 -0.332355 0.943154 -0.332355 0.943154 -0.332355 0.943154 -0.332355 0.943154 -0.332355 0.943154 -0.332355 0.943154 -0.332355 0.943154 -0.332355 0.943154 -0.332355 0.943154 -0.332355 0.943154 -0.332355 0.943154 -0.332355 0.943154 -0.332355 0.943154 -0.332355 0.943154 -0.332355 0.943154 -0.332355 0.943154 -0.332355 0.943154 -0.332355 0.943154 -0.332355 0.943154 -0.332355 0.943154 -0.332355 0.943154 -0.332355 0.943154 -0.332355 0.943154 -0.332355 0.943154 -0.332355 0.943154 -0.332355 0.943154 -0.332355 0.943154 -0.332355 0.943154 -0.332355 0.943154 -0.332355 0.943154 -0.332355 0.943154 -0.332355 0.943154 -0.332355 0.943154 -0.332355 0.943154 -0.332355 0.943154 -0.332355 0.943154 -0.332355 0.943154 -0.332355 0.943154 -0.332355 0.943154 -0.332355 0.943154 -0.332355 0.943154 -0.332355 0.943154 
-0.332355 0.943154 -0.332355 0.943154 -0.332355 0.943154 -0.332355 0.943154 -0.332355 0.943154 -0.332355 0.943154 -0.332355 0.943154 -0.332355 0.943154 -0.332355 0.943154 -0.332355 0.943154 -0.332355 0.943154 -0.332355 0.943154 -0.332355 0.943154 -0.332355 0.943154 -0.332355 0.943154 -0.332355 0.943154 -0.332355 0.943154 -0.332355 0.943154 -0.332355 0.943154 -0.332355 0.943154 -0.332355 0.943154 -0.332355 0.943154 -0.332355 0.943154 -0.332355 0.943154 -0.332355 0.943154 -0.332355 0.943154 -0.332355 0.943154 -0.332355 0.943154 -0.332355 0.943154 -0.332355 0.943154 -0.332355 0.943154 -0.332355 0.943154 -0.332355 0.943154 -0.332355 0.943154 -0.332355 0.943154 -0.332355 0.943154 -0.332355 0.943154 -0.332355 0.943154 -0.332355 0.943154 -0.332355 0.943154 -0.332355 0.943154 -0.332355 0.943154 -0.332355 0.943154 -0.332355 0.943154 -0.332355 0.943154 -0.332355 0.943154 -0.332355 0.943154 -0.332355 0.943154 -0.332355 0.943154 -0.332355 0.943154 -0.332355 0.943154 -0.332355 0.943154 -0.332355 0.943154 -0.332355 0.943154 -0.332355 0.943154 -0.332355 0.943154 -0.332355 0.943154 -0.332355 0.943154 -0.332355 0.943154 -0.332355 0.943154 -0.332355 0.943154 -0.332355 0.943154 -0.332355 0.943154 -0.332355 0.943154 -0.332355 0.943154 -0.332355 0.943154 -0.332355 0.943154 -0.332355 0.943154 -0.332355 0.943154 -0.332355 0.943154 -0.332355 0.943154 -0.332355 0.943154 -0.332355 0.943154 -0.332355 0.943154 -0.332355 0.943154 -0.332355 0.943154 -0.332355 0.943154 -0.332355 0.943154 -0.332355 0.943154 -0.332355 0.943154 -0.332355 0.943154 -0.332355 0.943154 -0.332355 0.943154 -0.332355 0.943154 -0.332355 0.943154 -0.332355 0.943154 -0.332355 0.943154 -0.332355 0.943154 -0.332355 0.943154 -0.332355 0.943154 -0.332355 0.943154 -0.332355 0.943154 -0.332355 0.943154 -0.332355 0.943154 -0.332355 0.943154 -0.332355 0.943154 -0.332355 0.943154 -0.332355 0.943154 -0.332355 0.943154 -0.332355 0.943154 -0.332355 0.943154 -0.332355 0.943154 -0.332355 0.943154 -0.332355 0.943154 -0.332355 0.943154 -0.332355 0.943154 -0.332355 0.943154 -0.332355 0.943154 -0.332355 0.943154 -0.332355 0.943154 -0.332355 0.943154 -0.332355 0.943154 -0.332355 0.943154 -0.332355 0.943154 -0.332355 0.943154 -0.332355 0.943154 -0.332355 0.943154 -0.332355 0.943154 -0.332355 0.943154 -0.332355 0.943154 -0.332355 0.943154 -0.332355 0.943154 -0.332355 0.943154 -0.332355 0.943154 -0.332355 0.943154 
-0.332355 0.943154 -0.332355 0.943154 -0.332355 0.943154 -0.332355 0.943154 -0.332355 0.943154 -0.332355 0.943154 -0.332355 0.943154 -0.332355 0.943154 -0.332355 0.943154 -0.332355 0.943154 -0.332355 0.943154 -0.332355 0.943154 -0.332355 0.943154 -0.332355 0.943154 -0.332355 0.943154 -0.332355 0.943154 -0.332355 0.943154 -0.332355 0.943154 -0.332355 0.943154 -0.332355 0.943154 -0.332355 0.943154 -0.332355 0.943154 -0.332355 0.943154 -0.332355 0.943154 -0.332355 0.943154 -0.332355 0.943154 -0.332355 0.943154 -0.332355 0.943154 -0.332355 0.943154 -0.332355 0.943154 -0.332355 0.943154 -0.332355 0.943154 -0.332355 0.943154 -0.332355 0.943154 -0.332355 0.943154 -0.332355 0.943154 -0.332355 0.943154 -0.332355 0.943154 -0.332355 0.943154 -0.332355 0.943154 -0.332355 0.943154 -0.332355 0.943154 -0.332355 0.943154 -0.332355 0.943154 -0.332355 0.943154 -0.332355 0.943154 -0.332355 0.943154 -0.332355 0.943154 -0.332355 0.943154 -0.332355 0.943154 -0.332355 0.943154 -0.332355 0.943154 -0.332355 0.943154 -0.332355 0.943154 -0.332355 0.943154 -0.332355 0.943154 -0.332355 0.943154 -0.332355 0.943154 -0.332355 0.943154 -0.332355 0.943154 -0.332355 0.943154 -0.332355 0.943154 -0.332355 0.943154 -0.332355 0.943154 -0.332355 0.943154 -0.332355 0.943154 -0.332355 0.943154 -0.332355 0.943154 -0.332355 0.943154 -0.332355 0.943154 -0.332355 0.943154 -0.332355 0.943154 -0.332355 0.943154 -0.332355 0.943154 -0.332355 0.943154 -0.332355 0.943154 -0.332355 0.943154 -0.332355 0.943154 -0.332355 0.943154 -0.332355 0.943154 -0.332355 0.943154 -0.332355 0.943154 -0.332355 0.943154 -0.332355 0.943154 -0.332355 0.943154 -0.332355 0.943154 -0.332355 0.943154 -0.332355 0.943154 -0.332355 0.943154 -0.332355 0.943154 -0.332355 0.943154 -0.332355 0.943154 -0.332355 0.943154 -0.332355 0.943154 -0.332355 0.943154 -0.332355 0.943154 -0.332355 0.943154 -0.332355 0.943154 -0.332355 0.943154 -0.332355 0.943154 -0.332355 0.943154 -0.332355 0.943154 -0.332355 0.943154 -0.332355 0.943154 -0.332355 0.943154 -0.332355 0.943154 -0.332355 0.943154 -0.332355 0.943154 -0.332355 0.943154 -0.332355 0.943154 -0.332355 0.943154 -0.332355 0.943154 -0.332355 0.943154 -0.332355 0.943154 -0.332355 0.943154 -0.332355 0.943154 -0.332355 0.943154 -0.332355 0.943154 -0.332355 0.943154 -0.332355 0.943154 -0.332355 0.943154 -0.332355 0.943154 -0.332355 0.943154 -0.332355 0.943154 -0.332355 0.943154 
-0.332355 0.943154 -0.332355 0.943154 -0.332355 0.943154 -0.332355 0.943154 -0.332355 0.943154 -0.332355 0.943154 -0.332355 0.943154 -0.332355 0.943154 -0.332355 0.943154 -0.332355 0.943154 -0.332355 0.943154 -0.332355 0.943154 -0.332355 0.943154 -0.332355 0.943154 -0.332355 0.943154 -0.332355 0.943154 -0.332355 0.943154 -0.332355 0.943154 -0.332355 0.943154 -0.332355 0.943154 -0.332355 0.943154 -0.332355 0.943154 -0.332355 0.943154 -0.332355 0.943154 -0.332355 0.943154 -0.332355 0.943154 -0.332355 0.943154 -0.332355 0.943154 -0.332355 0.943154 -0.332355 0.943154 -0.332355 0.943154 -0.332355 0.943154 -0.332355 0.943154 -0.332355 0.943154 -0.332355 0.943154 -0.332355 0.943154 -0.332355 0.943154 -0.332355 0.943154 -0.332355 0.943154 -0.332355 0.943154 -0.332355 0.943154 -0.332355 0.943154 -0.332355 0.943154 -0.332355 0.943154 -0.332355 0.943154 -0.332355 0.943154 -0.332355 0.943154 -0.332355 0.943154 -0.332355 0.943154 -0.332355 0.943154 -0.332355 0.943154 -0.332355 0.943154 -0.332355 0.943154 -0.332355 0.943154 -0.332355 0.943154 -0.332355 0.943154 -0.332355 0.943154 -0.332355 0.943154 -0.332355 0.943154 -0.332355 0.943154 -0.332355 0.943154 -0.332355 0.943154 -0.332355 0.943154 -0.332355 0.943154 -0.332355 0.943154 -0.332355 0.943154 -0.332355 0.943154 -0.332355 0.943154 -0.332355 0.943154 -0.332355 0.943154 -0.332355 0.943154 -0.332355 0.943154 -0.332355 0.943154 -0.332355 0.943154 -0.332355 0.943154 -0.332355 0.943154 -0.332355 0.943154 -0.332355 0.943154 -0.332355 0.943154 -0.332355 0.943154 -0.332355 0.943154 -0.332355 0.943154 -0.332355 0.943154 -0.332355 0.943154 -0.332355 0.943154 -0.332355 0.943154 -0.332355 0.943154 -0.332355 0.943154 -0.332355 0.943154 -0.332355 0.943154 -0.332355 0.943154 -0.332355 0.943154 -0.332355 0.943154 -0.332355 0.943154 -0.332355 0.943154 -0.332355 0.943154 -0.332355 0.943154 -0.332355 0.943154 -0.332355 0.943154 -0.332355 0.943154 -0.332355 0.943154 -0.332355 0.943154 -0.332355 0.943154 -0.332355 0.943154 -0.332355 0.943154 -0.332355 0.943154 -0.332355 0.943154 -0.332355 0.943154 -0.332355 0.943154 -0.332355 0.943154 -0.332355 0.943154 -0.332355 0.943154 -0.332355 0.943154 -0.332355 0.943154 -0.332355 0.943154 -0.332355 0.943154 -0.332355 0.943154 -0.332355 0.943154 -0.332355 0.943154 -0.332355 0.943154 -0.332355 0.943154 -0.332355 0.943154 -0.332355 0.943154 -0.332355 0.943154 -0.332355 0.943154 
-0.332355 0.943154 -0.332355 0.943154 -0.332355 0.943154 -0.332355 0.943154 -0.332355 0.943154 -0.332355 0.943154 -0.332355 0.943154 -0.332355 0.943154 -0.332355 0.943154 -0.332355 0.943154 -0.332355 0.943154 -0.332355 0.943154 -0.332355 0.943154 -0.332355 0.943154 -0.332355 0.943154 -0.332355 0.943154 -0.332355 0.943154 -0.332355 0.943154 -0.332355 0.943154 -0.332355 0.943154 -0.332355 0.943154 -0.332355 0.943154 -0.332355 0.943154 -0.332355 0.943154 -0.332355 0.943154 -0.332355 0.943154 -0.332355 0.943154 -0.332355 0.943154 -0.332355 0.943154 -0.332355 0.943154 -0.332355 0.943154 -0.332355 0.943154 -0.332355 0.943154 -0.332355 0.943154 -0.332355 0.943154 -0.332355 0.943154 -0.332355 0.943154 -0.332355 0.943154 -0.332355 0.943154 -0.332355 0.943154 -0.332355 0.943154 -0.332355 0.943154 -0.332355 0.943154 -0.332355 0.943154 -0.332355 0.943154 -0.332355 0.943154 -0.332355 0.943154 -0.332355 0.943154 -0.332355 0.943154 -0.332355 0.943154 -0.332355 0.943154 -0.332355 0.943154 -0.332355 0.943154 -0.332355 0.943154 -0.332355 0.943154 -0.332355 0.943154 -0.332355 0.943154 -0.332355 0.943154 -0.332355 0.943154 -0.332355 0.943154 -0.332355 0.943154 -0.332355 0.943154 -0.332355 0.943154 -0.332355 0.943154 -0.332355 0.943154 -0.332355 0.943154 -0.332355 0.943154 -0.332355 0.943154 -0.332355 0.943154 -0.332355 0.943154 -0.332355 0.943154 -0.332355 0.943154 -0.332355 0.943154 -0.332355 0.943154 -0.332355 0.943154 -0.332355 0.943154 -0.332355 0.943154 -0.332355 0.943154 -0.332355 0.943154 -0.332355 0.943154 -0.332355 0.943154 -0.332355 0.943154 -0.332355 0.943154 -0.332355 0.943154 -0.332355 0.943154 -0.332355 0.943154 -0.332355 0.943154 -0.332355 0.943154 -0.332355 0.943154 -0.332355 0.943154 -0.332355 0.943154 -0.332355 0.943154 -0.332355 0.943154 -0.332355 0.943154 -0.332355 0.943154 -0.332355 0.943154 -0.332355 0.943154 -0.332355 0.943154 -0.332355 0.943154 -0.332355 0.943154 -0.332355 0.943154 -0.332355 0.943154 -0.332355 0.943154 -0.332355 0.943154 -0.332355 0.943154 -0.332355 0.943154 -0.332355 0.943154 -0.332355 0.943154 -0.332355 0.943154 -0.332355 0.943154 -0.332355 0.943154 -0.332355 0.943154 -0.332355 0.943154 -0.332355 0.943154 -0.332355 0.943154 -0.332355 0.943154 -0.332355 0.943154 -0.332355 0.943154 -0.332355 0.943154 -0.332355 0.943154 -0.332355 0.943154 -0.332355 0.943154 -0.332355 0.943154 -0.332355 0.943154 -0.332355 0.943154 
-0.332355 0.943154 -0.332355 0.943154 -0.332355 0.943154 -0.332355 0.943154 -0.332355 0.943154 -0.332355 0.943154 -0.332355 0.943154 -0.332355 0.943154 -0.332355 0.943154 -0.332355 0.943154 -0.332355 0.943154 -0.332355 0.943154 -0.332355 0.943154 -0.332355 0.943154 -0.332355 0.943154 -0.332355 0.943154 -0.332355 0.943154 -0.332355 0.943154 -0.332355 0.943154 -0.332355 0.943154 -0.332355 0.943154 -0.332355 0.943154 -0.332355 0.943154 -0.332355 0.943154 -0.332355 0.943154 -0.332355 0.943154 -0.332355 0.943154 -0.332355 0.943154 -0.332355 0.943154 -0.332355 0.943154 -0.332355 0.943154 -0.332355 0.943154 -0.332355 0.943154 -0.332355 0.943154 -0.332355 0.943154 -0.332355 0.943154 -0.332355 0.943154 -0.332355 0.943154 -0.332355 0.943154 -0.332355 0.943154 -0.332355 0.943154 -0.332355 0.943154 -0.332355 0.943154 -0.332355 0.943154 -0.332355 0.943154 -0.332355 0.943154 -0.332355 0.943154 -0.332355 0.943154 -0.332355 0.943154 -0.332355 0.943154 -0.332355 0.943154 -0.332355 0.943154 -0.332355 0.943154 -0.332355 0.943154 -0.332355 0.943154 -0.332355 0.943154 -0.332355 0.943154 -0.332355 0.943154 -0.332355 0.943154 -0.332355 0.943154 -0.332355 0.943154 -0.332355 0.943154 -0.332355 0.943154 -0.332355 0.943154 -0.332355 0.943154 -0.332355 0.943154 -0.332355 0.943154 -0.332355 0.943154 -0.332355 0.943154 -0.332355 0.943154 -0.332355 0.943154 -0.332355 0.943154 -0.332355 0.943154 -0.332355 0.943154 -0.332355 0.943154 -0.332355 0.943154 -0.332355 0.943154 -0.332355 0.943154 -0.332355 0.943154 -0.332355 0.943154 -0.332355 0.943154 -0.332355 0.943154 -0.332355 0.943154 -0.332355 0.943154 -0.332355 0.943154 -0.332355 0.943154 -0.332355 0.943154 -0.332355 0.943154 -0.332355 0.943154 -0.332355 0.943154 -0.332355 0.943154 -0.332355 0.943154 -0.332355 0.943154 -0.332355 0.943154 -0.332355 0.943154 -0.332355 0.943154 -0.332355 0.943154 -0.332355 0.943154 -0.332355 0.943154 -0.332355 0.943154 -0.332355 0.943154 -0.332355 0.943154 -0.332355 0.943154 -0.332355 0.943154 -0.332355 0.943154 -0.332355 0.943154 -0.332355 0.943154 -0.332355 0.943154 -0.332355 0.943154 -0.332355 0.943154 -0.332355 0.943154 -0.332355 0.943154 -0.332355 0.943154 -0.332355 0.943154 -0.332355 0.943154 -0.332355 0.943154 -0.332355 0.943154 -0.332355 0.943154 -0.332355 0.943154 -0.332355 0.943154 -0.332355 0.943154 -0.332355 0.943154 -0.332355 0.943154 -0.332355 0.943154 -0.332355 0.943154 
-0.332355 0.943154 -0.332355 0.943154 -0.332355 0.943154 -0.332355 0.943154 -0.332355 0.943154 -0.332355 0.943154 -0.332355 0.943154 -0.332355 0.943154 -0.332355 0.943154 -0.332355 0.943154 -0.332355 0.943154 -0.332355 0.943154 -0.332355 0.943154 -0.332355 0.943154 -0.332355 0.943154 -0.332355 0.943154 -0.332355 0.943154 -0.332355 0.943154 -0.332355 0.943154 -0.332355 0.943154 -0.332355 0.943154 -0.332355 0.943154 -0.332355 0.943154 -0.332355 0.943154 -0.332355 0.943154 -0.332355 0.943154 -0.332355 0.943154 -0.332355 0.943154 -0.332355 0.943154 -0.332355 0.943154 -0.332355 0.943154 -0.332355 0.943154 -0.332355 0.943154 -0.332355 0.943154 -0.332355 0.943154 -0.332355 0.943154 -0.332355 0.943154 -0.332355 0.943154 -0.332355 0.943154 -0.332355 0.943154 -0.332355 0.943154 -0.332355 0.943154 -0.332355 0.943154 -0.332355 0.943154 -0.332355 0.943154 -0.332355 0.943154 -0.332355 0.943154 -0.332355 0.943154 -0.332355 0.943154 -0.332355 0.943154 -0.332355 0.943154 -0.332355 0.943154 -0.332355 0.943154 -0.332355 0.943154 -0.332355 0.943154 -0.332355 0.943154 -0.332355 0.943154 -0.332355 0.943154 -0.332355 0.943154 -0.332355 0.943154 -0.332355 0.943154 -0.332355 0.943154 -0.332355 0.943154 -0.332355 0.943154 -0.332355 0.943154 -0.332355 0.943154 -0.332355 0.943154 -0.332355 0.943154 -0.332355 0.943154 -0.332355 0.943154 -0.332355 0.943154 -0.332355 0.943154 -0.332355 0.943154 -0.332355 0.943154 -0.332355 0.943154 -0.332355 0.943154 -0.332355 0.943154 -0.332355 0.943154 -0.332355 0.943154 -0.332355 0.943154 -0.332355 0.943154 -0.332355 0.943154 -0.332355 0.943154 -0.332355 0.943154 -0.332355 0.943154 -0.332355 0.943154 -0.332355 0.943154 -0.332355 0.943154 -0.332355 0.943154 -0.332355 0.943154 -0.332355 0.943154 -0.332355 0.943154 -0.332355 0.943154 -0.332355 0.943154 -0.332355 0.943154 -0.332355 0.943154 -0.332355 0.943154 -0.332355 0.943154 -0.332355 0.943154 -0.332355 0.943154 -0.332355 0.943154 -0.332355 0.943154 -0.332355 0.943154 -0.332355 0.943154 -0.332355 0.943154 -0.332355 0.943154 -0.332355 0.943154 -0.332355 0.943154 -0.332355 0.943154 -0.332355 0.943154 -0.332355 0.943154 -0.332355 0.943154 -0.332355 0.943154 -0.332355 0.943154 -0.332355 0.943154 -0.332355 0.943154 -0.332355 0.943154 -0.332355 0.943154 -0.332355 0.943154 -0.332355 0.943154 -0.332355 0.943154 -0.332355 0.943154 -0.332355 0.943154 -0.332355 0.943154 -0.332355 0.943154 
-0.332355 0.943154 -0.332355 0.943154 -0.332355 0.943154 -0.332355 0.943154 -0.332355 0.943154 -0.332355 0.943154 -0.332355 0.943154 -0.332355 0.943154 -0.332355 0.943154 -0.332355 0.943154 -0.332355 0.943154 -0.332355 0.943154 -0.332355 0.943154 -0.332355 0.943154 -0.332355 0.943154 -0.332355 0.943154 -0.332355 0.943154 -0.332355 0.943154 -0.332355 0.943154 -0.332355 0.943154 -0.332355 0.943154 -0.332355 0.943154 -0.332355 0.943154 -0.332355 0.943154 -0.332355 0.943154 -0.332355 0.943154 -0.332355 0.943154 -0.332355 0.943154 -0.332355 0.943154 -0.332355 0.943154 -0.332355 0.943154 -0.332355 0.943154 -0.332355 0.943154 -0.332355 0.943154 -0.332355 0.943154 -0.332355 0.943154 -0.332355 0.943154 -0.332355 0.943154 -0.332355 0.943154 -0.332355 0.943154 -0.332355 0.943154 -0.332355 0.943154 -0.332355 0.943154 -0.332355 0.943154 -0.332355 0.943154 -0.332355 0.943154 -0.332355 0.943154 -0.332355 0.943154 -0.332355 0.943154 -0.332355 0.943154 -0.332355 0.943154 -0.332355 0.943154 -0.332355 0.943154 -0.332355 0.943154 -0.332355 0.943154 -0.332355 0.943154 -0.332355 0.943154 -0.332355 0.943154 -0.332355 0.943154 -0.332355 0.943154 -0.332355 0.943154 -0.332355 0.943154 -0.332355 0.943154 -0.332355 0.943154 -0.332355 0.943154 -0.332355 0.943154 -0.332355 0.943154 -0.332355 0.943154 -0.332355 0.943154 -0.332355 0.943154 -0.332355 0.943154 -0.332355 0.943154 -0.332355 0.943154 -0.332355 0.943154 -0.332355 0.943154 -0.332355 0.943154 -0.332355 0.943154 -0.332355 0.943154 -0.332355 0.943154 -0.332355 0.943154 -0.332355 0.943154 -0.332355 0.943154 -0.332355 0.943154 -0.332355 0.943154 -0.332355 0.943154 -0.332355 0.943154 -0.332355 0.943154 -0.332355 0.943154 -0.332355 0.943154 -0.332355 0.943154 -0.332355 0.943154 -0.332355 0.943154 -0.332355 0.943154 -0.332355 0.943154 -0.332355 0.943154 -0.332355 0.943154 -0.332355 0.943154 -0.332355 0.943154 -0.332355 0.943154 -0.332355 0.943154 -0.332355 0.943154 -0.332355 0.943154 -0.332355 0.943154 -0.332355 0.943154 -0.332355 0.943154 -0.332355 0.943154 -0.332355 0.943154 -0.332355 0.943154 -0.332355 0.943154 -0.332355 0.943154 -0.332355 0.943154 -0.332355 0.943154 -0.332355 0.943154 -0.332355 0.943154 -0.332355 0.943154 -0.332355 0.943154 -0.332355 0.943154 -0.332355 0.943154 -0.332355 0.943154 -0.332355 0.943154 -0.332355 0.943154 -0.332355 0.943154 -0.332355 0.943154 -0.332355 0.943154 -0.332355 0.943154 
-0.332355 0.943154 -0.332355 0.943154 -0.332355 0.943154 -0.332355 0.943154 -0.332355 0.943154 -0.332355 0.943154 -0.332355 0.943154 -0.332355 0.943154 -0.332355 0.943154 -0.332355 0.943154 -0.332355 0.943154 -0.332355 0.943154 -0.332355 0.943154 -0.332355 0.943154 -0.332355 0.943154 -0.332355 0.943154 -0.332355 0.943154 -0.332355 0.943154 -0.332355 0.943154 -0.332355 0.943154 -0.332355 0.943154 -0.332355 0.943154 -0.332355 0.943154 -0.332355 0.943154 -0.332355 0.943154 -0.332355 0.943154 -0.332355 0.943154 -0.332355 0.943154 -0.332355 0.943154 -0.332355 0.943154 -0.332355 0.943154 -0.332355 0.943154 -0.332355 0.943154 -0.332355 0.943154 -0.332355 0.943154 -0.332355 0.943154 -0.332355 0.943154 -0.332355 0.943154 -0.332355 0.943154 -0.332355 0.943154 -0.332355 0.943154 -0.332355 0.943154 -0.332355 0.943154 -0.332355 0.943154 -0.332355 0.943154 -0.332355 0.943154 -0.332355 0.943154 -0.332355 0.943154 -0.332355 0.943154 -0.332355 0.943154 -0.332355 0.943154 -0.332355 0.943154 -0.332355 0.943154 -0.332355 0.943154 -0.332355 0.943154 -0.332355 0.943154 -0.332355 0.943154 -0.332355 0.943154 -0.332355 0.943154 -0.332355 0.943154 -0.332355 0.943154 -0.332355 0.943154 -0.332355 0.943154 -0.332355 0.943154 -0.332355 0.943154 -0.332355 0.943154 -0.332355 0.943154 -0.332355 0.943154 -0.332355 0.943154 -0.332355 0.943154 -0.332355 0.943154 -0.332355 0.943154 -0.332355 0.943154 -0.332355 0.943154 -0.332355 0.943154 -0.332355 0.943154 -0.332355 0.943154 -0.332355 0.943154 -0.332355 0.943154 -0.332355 0.943154 -0.332355 0.943154 -0.332355 0.943154 -0.332355 0.943154 -0.332355 0.943154 -0.332355 0.943154 -0.332355 0.943154 -0.332355 0.943154 -0.332355 0.943154 -0.332355 0.943154 -0.332355 0.943154 -0.332355 0.943154 -0.332355 0.943154 -0.332355 0.943154 -0.332355 0.943154 -0.332355 0.943154 -0.332355 0.943154 -0.332355 0.943154 -0.332355 0.943154 -0.332355 0.943154 -0.332355 0.943154 -0.332355 0.943154 -0.332355 0.943154 -0.332355 0.943154 -0.332355 0.943154 -0.332355 0.943154 -0.332355 0.943154 -0.332355 0.943154 -0.332355 0.943154 -0.332355 0.943154 -0.332355 0.943154 -0.332355 0.943154 -0.332355 0.943154 -0.332355 0.943154 -0.332355 0.943154 -0.332355 0.943154 -0.332355 0.943154 -0.332355 0.943154 -0.332355 0.943154 -0.332355 0.943154 -0.332355 0.943154 -0.332355 0.943154 -0.332355 0.943154 -0.332355 0.943154 -0.332355 0.943154 -0.332355 0.943154 
-0.332355 0.943154 -0.332355 0.943154 -0.332355 0.943154 -0.332355 0.943154 -0.332355 0.943154 -0.332355 0.943154 -0.332355 0.943154 -0.332355 0.943154 -0.332355 0.943154 -0.332355 0.943154 -0.332355 0.943154 -0.332355 0.943154 -0.332355 0.943154 -0.332355 0.943154 -0.332355 0.943154 -0.332355 0.943154 -0.332355 0.943154 -0.332355 0.943154 -0.332355 0.943154 -0.332355 0.943154 -0.332355 0.943154 -0.332355 0.943154 -0.332355 0.943154 -0.332355 0.943154 -0.332355 0.943154 -0.332355 0.943154 -0.332355 0.943154 -0.332355 0.943154 -0.332355 0.943154 -0.332355 0.943154 -0.332355 0.943154 -0.332355 0.943154 -0.332355 0.943154 -0.332355 0.943154 -0.332355 0.943154 -0.332355 0.943154 -0.332355 0.943154 -0.332355 0.943154 -0.332355 0.943154 -0.332355 0.943154 -0.332355 0.943154 -0.332355 0.943154 -0.332355 0.943154 -0.332355 0.943154 -0.332355 0.943154 -0.332355 0.943154 -0.332355 0.943154 -0.332355 0.943154 -0.332355 0.943154 -0.332355 0.943154 -0.332355 0.943154 -0.332355 0.943154 -0.332355 0.943154 -0.332355 0.943154 -0.332355 0.943154 -0.332355 0.943154 -0.332355 0.943154 -0.332355 0.943154 -0.332355 0.943154 -0.332355 0.943154 -0.332355 0.943154 -0.332355 0.943154 -0.332355 0.943154 -0.332355 0.943154 -0.332355 0.943154 -0.332355 0.943154 -0.332355 0.943154 -0.332355 0.943154 -0.332355 0.943154 -0.332355 0.943154 -0.332355 0.943154 -0.332355 0.943154 -0.332355 0.943154 -0.332355 0.943154 -0.332355 0.943154 -0.332355 0.943154 -0.332355 0.943154 -0.332355 0.943154 -0.332355 0.943154 -0.332355 0.943154 -0.332355 0.943154 -0.332355 0.943154 -0.332355 0.943154 -0.332355 0.943154 -0.332355 0.943154 -0.332355 0.943154 -0.332355 0.943154 -0.332355 0.943154 -0.332355 0.943154 -0.332355 0.943154 -0.332355 0.943154 -0.332355 0.943154 -0.332355 0.943154 -0.332355 0.943154 -0.332355 0.943154 -0.332355 0.943154 -0.332355 0.943154 -0.332355 0.943154 -0.332355 0.943154 -0.332355 0.943154 -0.332355 0.943154 -0.332355 0.943154 -0.332355 0.943154 -0.332355 0.943154 -0.332355 0.943154 -0.332355 0.943154 -0.332355 0.943154 -0.332355 0.943154 -0.332355 0.943154 -0.332355 0.943154 -0.332355 0.943154 -0.332355 0.943154 -0.332355 0.943154 -0.332355 0.943154 -0.332355 0.943154 -0.332355 0.943154 -0.332355 0.943154 -0.332355 0.943154 -0.332355 0.943154 -0.332355 0.943154 -0.332355 0.943154 -0.332355 0.943154 -0.332355 0.943154 -0.332355 0.943154 -0.332355 0.943154 
-0.332355 0.943154 -0.332355 0.943154 -0.332355 0.943154 -0.332355 0.943154 -0.332355 0.943154 -0.332355 0.943154 -0.332355 0.943154 -0.332355 0.943154 -0.332355 0.943154 -0.332355 0.943154 -0.332355 0.943154 -0.332355 0.943154 -0.332355 0.943154 -0.332355 0.943154 -0.332355 0.943154 -0.332355 0.943154 -0.332355 0.943154 -0.332355 0.943154 -0.332355 0.943154 -0.332355 0.943154 -0.332355 0.943154 -0.332355 0.943154 -0.332355 0.943154 -0.332355 0.943154 -0.332355 0.943154 -0.332355 0.943154 -0.332355 0.943154 -0.332355 0.943154 -0.332355 0.943154 -0.332355 0.943154 -0.332355 0.943154 -0.332355 0.943154 -0.332355 0.943154 -0.332355 0.943154 -0.332355 0.943154 -0.332355 0.943154 -0.332355 0.943154 -0.332355 0.943154 -0.332355 0.943154 -0.332355 0.943154 -0.332355 0.943154 -0.332355 0.943154 -0.332355 0.943154 -0.332355 0.943154 -0.332355 0.943154 -0.332355 0.943154 -0.332355 0.943154 -0.332355 0.943154 -0.332355 0.943154 -0.332355 0.943154 -0.332355 0.943154 -0.332355 0.943154 -0.332355 0.943154 -0.332355 0.943154 -0.332355 0.943154 -0.332355 0.943154 -0.332355 0.943154 -0.332355 0.943154 -0.332355 0.943154 -0.332355 0.943154 -0.332355 0.943154 -0.332355 0.943154 -0.332355 0.943154 -0.332355 0.943154 -0.332355 0.943154 -0.332355 0.943154 -0.332355 0.943154 -0.332355 0.943154 -0.332355 0.943154 -0.332355 0.943154 -0.332355 0.943154 -0.332355 0.943154 -0.332355 0.943154 -0.332355 0.943154 -0.332355 0.943154 -0.332355 0.943154 -0.332355 0.943154 -0.332355 0.943154 -0.332355 0.943154 -0.332355 0.943154 -0.332355 0.943154 -0.332355 0.943154 -0.332355 0.943154 -0.332355 0.943154 -0.332355 0.943154 -0.332355 0.943154 -0.332355 0.943154 -0.332355 0.943154 -0.332355 0.943154 -0.332355 0.943154 -0.332355 0.943154 -0.332355 0.943154 -0.332355 0.943154 -0.332355 0.943154 -0.332355 0.943154 -0.332355 0.943154 -0.332355 0.943154 -0.332355 0.943154 -0.332355 0.943154 -0.332355 0.943154 -0.332355 0.943154 -0.332355 0.943154 -0.332355 0.943154 -0.332355 0.943154 -0.332355 0.943154 -0.332355 0.943154 -0.332355 0.943154 -0.332355 0.943154 -0.332355 0.943154 -0.332355 0.943154 -0.332355 0.943154 -0.332355 0.943154 -0.332355 0.943154 -0.332355 0.943154 -0.332355 0.943154 -0.332355 0.943154 -0.332355 0.943154 -0.332355 0.943154 -0.332355 0.943154 -0.332355 0.943154 -0.332355 0.943154 -0.332355 0.943154 -0.332355 0.943154 -0.332355 0.943154 -0.332355 0.943154 
-0.332355 0.943154 -0.332355 0.943154 -0.332355 0.943154 -0.332355 0.943154 -0.332355 0.943154 -0.332355 0.943154 -0.332355 0.943154 -0.332355 0.943154 -0.332355 0.943154 -0.332355 0.943154 -0.332355 0.943154 -0.332355 0.943154 -0.332355 0.943154 -0.332355 0.943154 -0.332355 0.943154 -0.332355 0.943154 -0.332355 0.943154 -0.332355 0.943154 -0.332355 0.943154 -0.332355 0.943154 -0.332355 0.943154 -0.332355 0.943154 -0.332355 0.943154 -0.332355 0.943154 -0.332355 0.943154 -0.332355 0.943154 -0.332355 0.943154 -0.332355 0.943154 -0.332355 0.943154 -0.332355 0.943154 -0.332355 0.943154 -0.332355 0.943154 -0.332355 0.943154 -0.332355 0.943154 -0.332355 0.943154 -0.332355 0.943154 -0.332355 0.943154 -0.332355 0.943154 -0.332355 0.943154 -0.332355 0.943154 -0.332355 0.943154 -0.332355 0.943154 -0.332355 0.943154 -0.332355 0.943154 -0.332355 0.943154 -0.332355 0.943154 -0.332355 0.943154 -0.332355 0.943154 -0.332355 0.943154 -0.332355 0.943154 -0.332355 0.943154 -0.332355 0.943154 -0.332355 0.943154 -0.332355 0.943154 -0.332355 0.943154 -0.332355 0.943154 -0.332355 0.943154 -0.332355 0.943154 -0.332355 0.943154 -0.332355 0.943154 -0.332355 0.943154 -0.332355 0.943154 -0.332355 0.943154 -0.332355 0.943154 -0.332355 0.943154 -0.332355 0.943154 -0.332355 0.943154 -0.332355 0.943154 -0.332355 0.943154 -0.332355 0.943154 -0.332355 0.943154 -0.332355 0.943154 -0.332355 0.943154 -0.332355 0.943154 -0.332355 0.943154 -0.332355 0.943154 -0.332355 0.943154 -0.332355 0.943154 -0.332355 0.943154 -0.332355 0.943154 -0.332355 0.943154 -0.332355 0.943154 -0.332355 0.943154 -0.332355 0.943154 -0.332355 0.943154 -0.332355 0.943154 -0.332355 0.943154 -0.332355 0.943154 -0.332355 0.943154 -0.332355 0.943154 -0.332355 0.943154 -0.332355 0.943154 -0.332355 0.943154 -0.332355 0.943154 -0.332355 0.943154 -0.332355 0.943154 -0.332355 0.943154 -0.332355 0.943154 -0.332355 0.943154 -0.332355 0.943154 -0.332355 0.943154 -0.332355 0.943154 -0.332355 0.943154 -0.332355 0.943154 -0.332355 0.943154 -0.332355 0.943154 -0.332355 0.943154 -0.332355 0.943154 -0.332355 0.943154 -0.332355 0.943154 -0.332355 0.943154 -0.332355 0.943154 -0.332355 0.943154 -0.332355 0.943154 -0.332355 0.943154 -0.332355 0.943154 -0.332355 0.943154 -0.332355 0.943154 -0.332355 0.943154 -0.332355 0.943154 -0.332355 0.943154 -0.332355 0.943154 -0.332355 0.943154 -0.332355 0.943154 -0.332355 0.943154 